 TITLE = "A Model for Stokes Flow Analysis" 
 VARIABLES = "X", "Y", "Z", "u", "v", "w", "t_x", "t_y", "t_z" 
 ZONE DATAPACKING=POINT, ZONETYPE=FETRIANGLE,N=        1906 ,E=        3804
  0.1502264E-17  0.2453384E-01  0.1269408E+01
  0.0000000E+00  0.1000000E+02  0.0000000E+00  0.3474126E-02 -0.3615115E+02  0.3832345E+00
 -0.4506793E-17 -0.2453384E-01  0.1269408E+01
  0.0000000E+00  0.1000000E+02  0.0000000E+00  0.4904854E-03 -0.3575732E+02 -0.1043779E-01
  0.6353616E-01  0.3668262E-01  0.1264598E+01
  0.0000000E+00  0.1000000E+02  0.0000000E+00 -0.7448437E-02 -0.3572475E+02  0.9237259E-01
  0.4492325E-17  0.7336524E-01  0.1264598E+01
  0.0000000E+00  0.1000000E+02  0.0000000E+00 -0.1325399E-02 -0.3611038E+02  0.4220449E+00
 -0.6353616E-01  0.3668262E-01  0.1264598E+01
  0.0000000E+00  0.1000000E+02  0.0000000E+00  0.1347095E-01 -0.3581579E+02  0.2305146E+00
 -0.6353616E-01 -0.3668262E-01  0.1264598E+01
  0.0000000E+00  0.1000000E+02  0.0000000E+00 -0.1030171E-01 -0.3576265E+02 -0.1449240E+00
 -0.1347698E-16 -0.7336524E-01  0.1264598E+01
  0.0000000E+00  0.1000000E+02  0.0000000E+00  0.3637877E-02 -0.3614374E+02 -0.4714267E+00
  0.6353616E-01 -0.3668262E-01  0.1264598E+01
  0.0000000E+00  0.1000000E+02  0.0000000E+00  0.2772913E-01 -0.3586359E+02 -0.3742395E+00
  0.1155439E+00  0.3754250E-01  0.1255026E+01
  0.0000000E+00  0.1000000E+02  0.0000000E+00 -0.3855889E-02 -0.3595710E+02  0.4498393E+00
  0.7141008E-01  0.9828755E-01  0.1255026E+01
  0.0000000E+00  0.1000000E+02  0.0000000E+00  0.1902466E-01 -0.3607965E+02  0.5638231E+00
  0.7439122E-17  0.1214901E+00  0.1255026E+01
  0.0000000E+00  0.1000000E+02  0.0000000E+00  0.1110213E-02 -0.3590428E+02  0.9018204E+00
 -0.7141008E-01  0.9828755E-01  0.1255026E+01
  0.0000000E+00  0.1000000E+02  0.0000000E+00 -0.1254456E-01 -0.3607971E+02  0.5494576E+00
 -0.1155439E+00  0.3754250E-01  0.1255026E+01
  0.0000000E+00  0.1000000E+02  0.0000000E+00  0.2890653E-01 -0.3575625E+02  0.1411683E+00
 -0.1155439E+00 -0.3754250E-01  0.1255026E+01
  0.0000000E+00  0.1000000E+02  0.0000000E+00 -0.5668369E-03 -0.3590686E+02 -0.4328771E+00
 -0.7141008E-01 -0.9828755E-01  0.1255026E+01
  0.0000000E+00  0.1000000E+02  0.0000000E+00  0.2418548E-02 -0.3607010E+02 -0.5720947E+00
 -0.2231737E-16 -0.1214901E+00  0.1255026E+01
  0.0000000E+00  0.1000000E+02  0.0000000E+00  0.3195842E-02 -0.3589483E+02 -0.9219389E+00
  0.7141008E-01 -0.9828755E-01  0.1255026E+01
  0.0000000E+00  0.1000000E+02  0.0000000E+00  0.1031827E-01 -0.3606200E+02 -0.5829834E+00
  0.1155439E+00 -0.3754250E-01  0.1255026E+01
  0.0000000E+00  0.1000000E+02  0.0000000E+00  0.2413640E-01 -0.3573889E+02 -0.1159736E+00
  0.1642217E+00  0.3748252E-01  0.1240782E+01
  0.0000000E+00  0.1000000E+02  0.0000000E+00 -0.4266650E-01 -0.3583540E+02  0.7778356E-01
  0.1316955E+00  0.1050237E+00  0.1240782E+01
  0.0000000E+00  0.1000000E+02  0.0000000E+00 -0.1300589E-01 -0.3619638E+02  0.6979386E+00
  0.7308551E-01  0.1517636E+00  0.1240782E+01
  0.0000000E+00  0.1000000E+02  0.0000000E+00  0.4087806E-02 -0.3612023E+02  0.1011618E+01
  0.1031428E-16  0.1684449E+00  0.1240782E+01
  0.0000000E+00  0.1000000E+02  0.0000000E+00  0.1042856E-02 -0.3596942E+02  0.1294351E+01
 -0.7308551E-01  0.1517636E+00  0.1240782E+01
  0.0000000E+00  0.1000000E+02  0.0000000E+00 -0.3166770E-02 -0.3612161E+02  0.1004006E+01
 -0.1316955E+00  0.1050237E+00  0.1240782E+01
  0.0000000E+00  0.1000000E+02  0.0000000E+00  0.8794375E-02 -0.3619625E+02  0.6942003E+00
 -0.1642217E+00  0.3748252E-01  0.1240782E+01
  0.0000000E+00  0.1000000E+02  0.0000000E+00  0.2661718E-01 -0.3592688E+02  0.2124547E+00
 -0.1642217E+00 -0.3748252E-01  0.1240782E+01
  0.0000000E+00  0.1000000E+02  0.0000000E+00 -0.1242797E-01 -0.3584618E+02 -0.2301677E+00
 -0.1316955E+00 -0.1050237E+00  0.1240782E+01
  0.0000000E+00  0.1000000E+02  0.0000000E+00 -0.1195107E-01 -0.3618329E+02 -0.7111658E+00
 -0.7308551E-01 -0.1517636E+00  0.1240782E+01
  0.0000000E+00  0.1000000E+02  0.0000000E+00 -0.1156373E-01 -0.3610780E+02 -0.1025161E+01
 -0.3094283E-16 -0.1684449E+00  0.1240782E+01
  0.0000000E+00  0.1000000E+02  0.0000000E+00  0.2471527E-02 -0.3596109E+02 -0.1312776E+01
  0.7308551E-01 -0.1517636E+00  0.1240782E+01
  0.0000000E+00  0.1000000E+02  0.0000000E+00  0.1459830E-01 -0.3610721E+02 -0.1031603E+01
  0.1316955E+00 -0.1050237E+00  0.1240782E+01
  0.0000000E+00  0.1000000E+02  0.0000000E+00  0.3002318E-02 -0.3617016E+02 -0.7206736E+00
  0.1642217E+00 -0.3748252E-01  0.1240782E+01
  0.0000000E+00  0.1000000E+02  0.0000000E+00 -0.2226544E-01 -0.3594078E+02 -0.4692698E+00
  0.2105298E+00  0.3712208E-01  0.1222005E+01
  0.0000000E+00  0.1000000E+02  0.0000000E+00  0.4600878E-01 -0.3616859E+02  0.4203598E+00
  0.1851368E+00  0.1068888E+00  0.1222005E+01
  0.0000000E+00  0.1000000E+02  0.0000000E+00 -0.1299975E-01 -0.3630768E+02  0.7556154E+00
  0.1374136E+00  0.1637631E+00  0.1222005E+01
  0.0000000E+00  0.1000000E+02  0.0000000E+00 -0.9281225E-02 -0.3631805E+02  0.1186415E+01
  0.7311623E-01  0.2008852E+00  0.1222005E+01
  0.0000000E+00  0.1000000E+02  0.0000000E+00 -0.9414308E-02 -0.3623975E+02  0.1440741E+01
  0.1309010E-16  0.2137775E+00  0.1222005E+01
  0.0000000E+00  0.1000000E+02  0.0000000E+00  0.1230844E-02 -0.3611396E+02  0.1684647E+01
 -0.7311623E-01  0.2008852E+00  0.1222005E+01
  0.0000000E+00  0.1000000E+02  0.0000000E+00  0.1019643E-01 -0.3624029E+02  0.1434875E+01
 -0.1374136E+00  0.1637631E+00  0.1222005E+01
  0.0000000E+00  0.1000000E+02  0.0000000E+00  0.9542704E-02 -0.3631845E+02  0.1184012E+01
 -0.1851368E+00  0.1068888E+00  0.1222005E+01
  0.0000000E+00  0.1000000E+02  0.0000000E+00  0.1808475E-01 -0.3631436E+02  0.7478729E+00
 -0.2105298E+00  0.3712208E-01  0.1222005E+01
  0.0000000E+00  0.1000000E+02  0.0000000E+00 -0.3565279E-01 -0.3617972E+02  0.3805951E+00
 -0.2105298E+00 -0.3712208E-01  0.1222005E+01
  0.0000000E+00  0.1000000E+02  0.0000000E+00 -0.1941703E-01 -0.3597159E+02 -0.1687088E+00
 -0.1851368E+00 -0.1068888E+00  0.1222005E+01
  0.0000000E+00  0.1000000E+02  0.0000000E+00 -0.1427498E-01 -0.3628151E+02 -0.7773003E+00
 -0.1374136E+00 -0.1637631E+00  0.1222005E+01
  0.0000000E+00  0.1000000E+02  0.0000000E+00 -0.7887762E-02 -0.3630184E+02 -0.1204162E+01
 -0.7311623E-01 -0.2008852E+00  0.1222005E+01
  0.0000000E+00  0.1000000E+02  0.0000000E+00 -0.2505729E-01 -0.3622626E+02 -0.1454002E+01
 -0.3927030E-16 -0.2137775E+00  0.1222005E+01
  0.0000000E+00  0.1000000E+02  0.0000000E+00  0.2603567E-02 -0.3610343E+02 -0.1701738E+01
  0.7311623E-01 -0.2008852E+00  0.1222005E+01
  0.0000000E+00  0.1000000E+02  0.0000000E+00  0.2781835E-01 -0.3622566E+02 -0.1459124E+01
  0.1374136E+00 -0.1637631E+00  0.1222005E+01
  0.0000000E+00  0.1000000E+02  0.0000000E+00  0.8684052E-02 -0.3630033E+02 -0.1206827E+01
  0.1851368E+00 -0.1068888E+00  0.1222005E+01
  0.0000000E+00  0.1000000E+02  0.0000000E+00  0.1744420E-01 -0.3628055E+02 -0.7823870E+00
  0.2105298E+00 -0.3712208E-01  0.1222005E+01
  0.0000000E+00  0.1000000E+02  0.0000000E+00  0.5205384E-01 -0.3597743E+02 -0.1088728E+00
  0.2544350E+00  0.3658222E-01  0.1198874E+01
  0.0000000E+00  0.1000000E+02  0.0000000E+00 -0.6785479E-01 -0.3624426E+02  0.1096155E+00
  0.2338222E+00  0.1067830E+00  0.1198874E+01
  0.0000000E+00  0.1000000E+02  0.0000000E+00 -0.2245515E-01 -0.3648199E+02  0.8034691E+00
  0.1942665E+00  0.1683329E+00  0.1198874E+01
  0.0000000E+00  0.1000000E+02  0.0000000E+00 -0.1443747E-01 -0.3650412E+02  0.1293557E+01
  0.1389725E+00  0.2162454E+00  0.1198874E+01
  0.0000000E+00  0.1000000E+02  0.0000000E+00 -0.1449785E-01 -0.3647568E+02  0.1669696E+01
  0.7241974E-01  0.2466390E+00  0.1198874E+01
  0.0000000E+00  0.1000000E+02  0.0000000E+00 -0.2634607E-01 -0.3641985E+02  0.1877112E+01
  0.1573986E-16  0.2570514E+00  0.1198874E+01
  0.0000000E+00  0.1000000E+02  0.0000000E+00  0.1954760E-02 -0.3630443E+02  0.2070048E+01
 -0.7241974E-01  0.2466390E+00  0.1198874E+01
  0.0000000E+00  0.1000000E+02  0.0000000E+00  0.2745570E-01 -0.3641991E+02  0.1872090E+01
 -0.1389725E+00  0.2162454E+00  0.1198874E+01
  0.0000000E+00  0.1000000E+02  0.0000000E+00  0.1474049E-01 -0.3647551E+02  0.1667771E+01
 -0.1942665E+00  0.1683329E+00  0.1198874E+01
  0.0000000E+00  0.1000000E+02  0.0000000E+00  0.1493944E-01 -0.3650443E+02  0.1292349E+01
 -0.2338222E+00  0.1067830E+00  0.1198874E+01
  0.0000000E+00  0.1000000E+02  0.0000000E+00  0.2625317E-01 -0.3648497E+02  0.7976323E+00
 -0.2544350E+00  0.3658222E-01  0.1198874E+01
  0.0000000E+00  0.1000000E+02  0.0000000E+00  0.3189739E-01 -0.3626843E+02  0.1981827E+00
 -0.2544350E+00 -0.3658222E-01  0.1198874E+01
  0.0000000E+00  0.1000000E+02  0.0000000E+00 -0.8625445E-02 -0.3627472E+02 -0.2347488E+00
 -0.2338222E+00 -0.1067830E+00  0.1198874E+01
  0.0000000E+00  0.1000000E+02  0.0000000E+00 -0.9986738E-02 -0.3644585E+02 -0.8206117E+00
 -0.1942665E+00 -0.1683329E+00  0.1198874E+01
  0.0000000E+00  0.1000000E+02  0.0000000E+00 -0.8750979E-02 -0.3648649E+02 -0.1310776E+01
 -0.1389725E+00 -0.2162454E+00  0.1198874E+01
  0.0000000E+00  0.1000000E+02  0.0000000E+00 -0.1296618E-01 -0.3645790E+02 -0.1685242E+01
 -0.7241974E-01 -0.2466390E+00  0.1198874E+01
  0.0000000E+00  0.1000000E+02  0.0000000E+00 -0.4132899E-01 -0.3640377E+02 -0.1889507E+01
 -0.4721957E-16 -0.2570514E+00  0.1198874E+01
  0.0000000E+00  0.1000000E+02  0.0000000E+00  0.3429314E-02 -0.3628531E+02 -0.2084302E+01
  0.7241974E-01 -0.2466390E+00  0.1198874E+01
  0.0000000E+00  0.1000000E+02  0.0000000E+00  0.4456991E-01 -0.3640347E+02 -0.1893681E+01
  0.1389725E+00 -0.2162454E+00  0.1198874E+01
  0.0000000E+00  0.1000000E+02  0.0000000E+00  0.1417086E-01 -0.3645710E+02 -0.1687441E+01
  0.1942665E+00 -0.1683329E+00  0.1198874E+01
  0.0000000E+00  0.1000000E+02  0.0000000E+00  0.9463830E-02 -0.3648543E+02 -0.1313639E+01
  0.2338222E+00 -0.1067830E+00  0.1198874E+01
  0.0000000E+00  0.1000000E+02  0.0000000E+00  0.6823665E-02 -0.3644811E+02 -0.8222361E+00
  0.2544350E+00 -0.3658222E-01  0.1198874E+01
  0.0000000E+00  0.1000000E+02  0.0000000E+00 -0.6288178E-01 -0.3629806E+02 -0.4179433E+00
  0.2956780E+00  0.3590181E-01  0.1171614E+01
  0.0000000E+00  0.1000000E+02  0.0000000E+00  0.2949671E-01 -0.3657343E+02  0.3147884E+00
  0.2784943E+00  0.1056189E+00  0.1171614E+01
  0.0000000E+00  0.1000000E+02  0.0000000E+00 -0.2332000E-01 -0.3669603E+02  0.7924961E+00
  0.2451255E+00  0.1691979E+00  0.1171614E+01
  0.0000000E+00  0.1000000E+02  0.0000000E+00 -0.1715276E-01 -0.3673258E+02  0.1385805E+01
  0.1975109E+00  0.2229437E+00  0.1171614E+01
  0.0000000E+00  0.1000000E+02  0.0000000E+00 -0.1640909E-01 -0.3672050E+02  0.1838658E+01
  0.1384176E+00  0.2637328E+00  0.1171614E+01
  0.0000000E+00  0.1000000E+02  0.0000000E+00 -0.2475455E-01 -0.3664763E+02  0.2124156E+01
  0.7128009E-01  0.2891947E+00  0.1171614E+01
  0.0000000E+00  0.1000000E+02  0.0000000E+00 -0.5953927E-01 -0.3656674E+02  0.2226943E+01
  0.1823803E-16  0.2978497E+00  0.1171614E+01
  0.0000000E+00  0.1000000E+02  0.0000000E+00  0.5280491E-02 -0.3654526E+02  0.2551971E+01
 -0.7128009E-01  0.2891947E+00  0.1171614E+01
  0.0000000E+00  0.1000000E+02  0.0000000E+00  0.6376574E-01 -0.3656578E+02  0.2220363E+01
 -0.1384176E+00  0.2637328E+00  0.1171614E+01
  0.0000000E+00  0.1000000E+02  0.0000000E+00  0.2537556E-01 -0.3664672E+02  0.2121924E+01
 -0.1975109E+00  0.2229437E+00  0.1171614E+01
  0.0000000E+00  0.1000000E+02  0.0000000E+00  0.1681859E-01 -0.3671990E+02  0.1837885E+01
 -0.2451255E+00  0.1691979E+00  0.1171614E+01
  0.0000000E+00  0.1000000E+02  0.0000000E+00  0.1788492E-01 -0.3673222E+02  0.1385916E+01
 -0.2784943E+00  0.1056189E+00  0.1171614E+01
  0.0000000E+00  0.1000000E+02  0.0000000E+00  0.2775115E-01 -0.3669710E+02  0.7941948E+00
 -0.2956780E+00  0.3590181E-01  0.1171614E+01
  0.0000000E+00  0.1000000E+02  0.0000000E+00  0.4142300E-01 -0.3651065E+02  0.1650149E+00
 -0.2956780E+00 -0.3590181E-01  0.1171614E+01
  0.0000000E+00  0.1000000E+02  0.0000000E+00  0.1050843E+00 -0.3655512E+02 -0.4462889E+00
 -0.2784943E+00 -0.1056189E+00  0.1171614E+01
  0.0000000E+00  0.1000000E+02  0.0000000E+00 -0.2819995E-01 -0.3666539E+02 -0.8219552E+00
 -0.2451255E+00 -0.1691979E+00  0.1171614E+01
  0.0000000E+00  0.1000000E+02  0.0000000E+00 -0.8197381E-02 -0.3671429E+02 -0.1402027E+01
 -0.1975109E+00 -0.2229437E+00  0.1171614E+01
  0.0000000E+00  0.1000000E+02  0.0000000E+00 -0.1116706E-01 -0.3670141E+02 -0.1853321E+01
 -0.1384176E+00 -0.2637328E+00  0.1171614E+01
  0.0000000E+00  0.1000000E+02  0.0000000E+00 -0.2372309E-01 -0.3661972E+02 -0.2134170E+01
 -0.7128009E-01 -0.2891947E+00  0.1171614E+01
  0.0000000E+00  0.1000000E+02  0.0000000E+00 -0.7854848E-01 -0.3652360E+02 -0.2232161E+01
 -0.5471409E-16 -0.2978497E+00  0.1171614E+01
  0.0000000E+00  0.1000000E+02  0.0000000E+00  0.7697850E-02 -0.3653154E+02 -0.2568791E+01
  0.7128009E-01 -0.2891947E+00  0.1171614E+01
  0.0000000E+00  0.1000000E+02  0.0000000E+00  0.8581421E-01 -0.3652441E+02 -0.2237665E+01
  0.1384176E+00 -0.2637328E+00  0.1171614E+01
  0.0000000E+00  0.1000000E+02  0.0000000E+00  0.2559570E-01 -0.3661946E+02 -0.2136867E+01
  0.1975109E+00 -0.2229437E+00  0.1171614E+01
  0.0000000E+00  0.1000000E+02  0.0000000E+00  0.1256744E-01 -0.3670011E+02 -0.1856071E+01
  0.2451255E+00 -0.1691979E+00  0.1171614E+01
  0.0000000E+00  0.1000000E+02  0.0000000E+00  0.9788564E-02 -0.3671299E+02 -0.1406174E+01
  0.2784943E+00 -0.1056189E+00  0.1171614E+01
  0.0000000E+00  0.1000000E+02  0.0000000E+00  0.3607559E-01 -0.3666843E+02 -0.8302886E+00
  0.2956780E+00 -0.3590181E-01  0.1171614E+01
  0.0000000E+00  0.1000000E+02  0.0000000E+00 -0.2006771E-02 -0.3651152E+02 -0.2636711E+00
  0.3339400E+00  0.3509851E-01  0.1140486E+01
  0.0000000E+00  0.1000000E+02  0.0000000E+00  0.1262191E-01 -0.3688453E+02  0.3592011E+00
  0.3193453E+00  0.1037616E+00  0.1140486E+01
  0.0000000E+00  0.1000000E+02  0.0000000E+00  0.7338260E-02 -0.3692735E+02  0.9232421E+00
  0.2907936E+00  0.1678897E+00  0.1140486E+01
  0.0000000E+00  0.1000000E+02  0.0000000E+00 -0.1835729E-01 -0.3702259E+02  0.1393530E+01
  0.2495328E+00  0.2246803E+00  0.1140486E+01
  0.0000000E+00  0.1000000E+02  0.0000000E+00 -0.6489641E-02 -0.3701653E+02  0.1984298E+01
  0.1973662E+00  0.2716513E+00  0.1140486E+01
  0.0000000E+00  0.1000000E+02  0.0000000E+00 -0.5004234E-01 -0.3691645E+02  0.2336866E+01
  0.1365738E+00  0.3067498E+00  0.1140486E+01
  0.0000000E+00  0.1000000E+02  0.0000000E+00 -0.7852270E-02 -0.3688653E+02  0.2656010E+01
  0.6981248E-01  0.3284419E+00  0.1140486E+01
  0.0000000E+00  0.1000000E+02  0.0000000E+00  0.3640258E-01 -0.3695325E+02  0.2937165E+01
  0.2056056E-16  0.3357795E+00  0.1140486E+01
  0.0000000E+00  0.1000000E+02  0.0000000E+00  0.3719357E-02 -0.3695660E+02  0.3242312E+01
 -0.6981248E-01  0.3284419E+00  0.1140486E+01
  0.0000000E+00  0.1000000E+02  0.0000000E+00 -0.3007406E-01 -0.3695342E+02  0.2935840E+01
 -0.1365738E+00  0.3067498E+00  0.1140486E+01
  0.0000000E+00  0.1000000E+02  0.0000000E+00  0.1148423E-01 -0.3688712E+02  0.2656345E+01
 -0.1973662E+00  0.2716513E+00  0.1140486E+01
  0.0000000E+00  0.1000000E+02  0.0000000E+00  0.5140988E-01 -0.3691454E+02  0.2335710E+01
 -0.2495328E+00  0.2246803E+00  0.1140486E+01
  0.0000000E+00  0.1000000E+02  0.0000000E+00  0.6942586E-02 -0.3701505E+02  0.1985062E+01
 -0.2907936E+00  0.1678897E+00  0.1140486E+01
  0.0000000E+00  0.1000000E+02  0.0000000E+00  0.1777092E-01 -0.3701737E+02  0.1392982E+01
 -0.3193453E+00  0.1037616E+00  0.1140486E+01
  0.0000000E+00  0.1000000E+02  0.0000000E+00 -0.4925270E-02 -0.3693442E+02  0.9320441E+00
 -0.3339400E+00  0.3509851E-01  0.1140486E+01
  0.0000000E+00  0.1000000E+02  0.0000000E+00 -0.1567161E+00 -0.3689251E+02  0.6391037E+00
 -0.3339400E+00 -0.3509851E-01  0.1140486E+01
  0.0000000E+00  0.1000000E+02  0.0000000E+00 -0.3179940E-01 -0.3682663E+02 -0.1860720E+00
 -0.3193453E+00 -0.1037616E+00  0.1140486E+01
  0.0000000E+00  0.1000000E+02  0.0000000E+00  0.3981698E-01 -0.3693260E+02 -0.9523349E+00
 -0.2907936E+00 -0.1678897E+00  0.1140486E+01
  0.0000000E+00  0.1000000E+02  0.0000000E+00 -0.1625980E-01 -0.3699287E+02 -0.1405844E+01
 -0.2495328E+00 -0.2246803E+00  0.1140486E+01
  0.0000000E+00  0.1000000E+02  0.0000000E+00  0.8109101E-03 -0.3699699E+02 -0.1997965E+01
 -0.1973662E+00 -0.2716513E+00  0.1140486E+01
  0.0000000E+00  0.1000000E+02  0.0000000E+00 -0.5122044E-01 -0.3687749E+02 -0.2343740E+01
 -0.1365738E+00 -0.3067498E+00  0.1140486E+01
  0.0000000E+00  0.1000000E+02  0.0000000E+00 -0.2884503E-02 -0.3686511E+02 -0.2667240E+01
 -0.6981248E-01 -0.3284419E+00  0.1140486E+01
  0.0000000E+00  0.1000000E+02  0.0000000E+00  0.4149381E-01 -0.3695456E+02 -0.2958184E+01
 -0.6168169E-16 -0.3357795E+00  0.1140486E+01
  0.0000000E+00  0.1000000E+02  0.0000000E+00  0.6778782E-02 -0.3698369E+02 -0.3267757E+01
  0.6981248E-01 -0.3284419E+00  0.1140486E+01
  0.0000000E+00  0.1000000E+02  0.0000000E+00 -0.3081960E-01 -0.3695395E+02 -0.2956382E+01
  0.1365738E+00 -0.3067498E+00  0.1140486E+01
  0.0000000E+00  0.1000000E+02  0.0000000E+00  0.9089691E-02 -0.3686506E+02 -0.2669364E+01
  0.1973662E+00 -0.2716513E+00  0.1140486E+01
  0.0000000E+00  0.1000000E+02  0.0000000E+00  0.5402162E-01 -0.3687609E+02 -0.2347576E+01
  0.2495328E+00 -0.2246803E+00  0.1140486E+01
  0.0000000E+00  0.1000000E+02  0.0000000E+00  0.2492878E-02 -0.3699447E+02 -0.2003162E+01
  0.2907936E+00 -0.1678897E+00  0.1140486E+01
  0.0000000E+00  0.1000000E+02  0.0000000E+00  0.2654405E-01 -0.3698301E+02 -0.1417429E+01
  0.3193453E+00 -0.1037616E+00  0.1140486E+01
  0.0000000E+00  0.1000000E+02  0.0000000E+00 -0.3178786E-01 -0.3694032E+02 -0.9576671E+00
  0.3339400E+00 -0.3509851E-01  0.1140486E+01
  0.0000000E+00  0.1000000E+02  0.0000000E+00 -0.6939156E-01 -0.3681828E+02 -0.4015807E+00
  0.3688952E+00  0.3418317E-01  0.1105789E+01
  0.0000000E+00  0.1000000E+02  0.0000000E+00  0.1591787E+00 -0.3729950E+02  0.6182521E+00
  0.3563329E+00  0.1013855E+00  0.1105789E+01
  0.0000000E+00  0.1000000E+02  0.0000000E+00  0.4244641E-01 -0.3726583E+02  0.1091748E+01
  0.3316361E+00  0.1651352E+00  0.1105789E+01
  0.0000000E+00  0.1000000E+02  0.0000000E+00  0.6257874E-01 -0.3727612E+02  0.1660346E+01
  0.2956459E+00  0.2232614E+00  0.1105789E+01
  0.0000000E+00  0.1000000E+02  0.0000000E+00  0.2382445E-01 -0.3735330E+02  0.2146073E+01
  0.2495878E+00  0.2737847E+00  0.1105789E+01
  0.0000000E+00  0.1000000E+02  0.0000000E+00 -0.9607473E-02 -0.3728578E+02  0.2580557E+01
  0.1950303E+00  0.3149847E+00  0.1105789E+01
  0.0000000E+00  0.1000000E+02  0.0000000E+00  0.1957363E-01 -0.3729236E+02  0.3039370E+01
  0.1338312E+00  0.3454582E+00  0.1105789E+01
  0.0000000E+00  0.1000000E+02  0.0000000E+00  0.6691802E-01 -0.3737560E+02  0.3481839E+01
  0.6807471E-01  0.3641675E+00  0.1105789E+01
  0.0000000E+00  0.1000000E+02  0.0000000E+00  0.4992376E-01 -0.3735200E+02  0.3581161E+01
  0.2268509E-16  0.3704756E+00  0.1105789E+01
  0.0000000E+00  0.1000000E+02  0.0000000E+00  0.2035585E-02 -0.3730842E+02  0.3707632E+01
 -0.6807471E-01  0.3641675E+00  0.1105789E+01
  0.0000000E+00  0.1000000E+02  0.0000000E+00 -0.4788959E-01 -0.3735125E+02  0.3579319E+01
 -0.1338312E+00  0.3454582E+00  0.1105789E+01
  0.0000000E+00  0.1000000E+02  0.0000000E+00 -0.6438840E-01 -0.3737799E+02  0.3484865E+01
 -0.1950303E+00  0.3149847E+00  0.1105789E+01
  0.0000000E+00  0.1000000E+02  0.0000000E+00 -0.1559257E-01 -0.3729283E+02  0.3044593E+01
 -0.2495878E+00  0.2737847E+00  0.1105789E+01
  0.0000000E+00  0.1000000E+02  0.0000000E+00  0.1189868E-01 -0.3728121E+02  0.2582790E+01
 -0.2956459E+00  0.2232614E+00  0.1105789E+01
  0.0000000E+00  0.1000000E+02  0.0000000E+00 -0.1992317E-01 -0.3735275E+02  0.2159093E+01
 -0.3316361E+00  0.1651352E+00  0.1105789E+01
  0.0000000E+00  0.1000000E+02  0.0000000E+00 -0.5217759E-01 -0.3728770E+02  0.1686876E+01
 -0.3563329E+00  0.1013855E+00  0.1105789E+01
  0.0000000E+00  0.1000000E+02  0.0000000E+00 -0.4013801E-01 -0.3726920E+02  0.1128591E+01
 -0.3688952E+00  0.3418317E-01  0.1105789E+01
  0.0000000E+00  0.1000000E+02  0.0000000E+00  0.7774600E-01 -0.3720649E+02  0.2274108E+00
 -0.3688952E+00 -0.3418317E-01  0.1105789E+01
  0.0000000E+00  0.1000000E+02  0.0000000E+00  0.2076089E+00 -0.3728009E+02 -0.6387484E+00
 -0.3563329E+00 -0.1013855E+00  0.1105789E+01
  0.0000000E+00  0.1000000E+02  0.0000000E+00  0.9487236E-01 -0.3726929E+02 -0.1101120E+01
 -0.3316361E+00 -0.1651352E+00  0.1105789E+01
  0.0000000E+00  0.1000000E+02  0.0000000E+00  0.9569396E-01 -0.3726772E+02 -0.1670979E+01
 -0.2956459E+00 -0.2232614E+00  0.1105789E+01
  0.0000000E+00  0.1000000E+02  0.0000000E+00  0.3860522E-01 -0.3732909E+02 -0.2153050E+01
 -0.2495878E+00 -0.2737847E+00  0.1105789E+01
  0.0000000E+00  0.1000000E+02  0.0000000E+00 -0.4662339E-02 -0.3724410E+02 -0.2583583E+01
 -0.1950303E+00 -0.3149847E+00  0.1105789E+01
  0.0000000E+00  0.1000000E+02  0.0000000E+00  0.2890707E-01 -0.3728492E+02 -0.3055808E+01
 -0.1338312E+00 -0.3454582E+00  0.1105789E+01
  0.0000000E+00  0.1000000E+02  0.0000000E+00  0.8182874E-01 -0.3740186E+02 -0.3507135E+01
 -0.6807471E-01 -0.3641675E+00  0.1105789E+01
  0.0000000E+00  0.1000000E+02  0.0000000E+00  0.5714257E-01 -0.3735624E+02 -0.3601710E+01
 -0.6805526E-16 -0.3704756E+00  0.1105789E+01
  0.0000000E+00  0.1000000E+02  0.0000000E+00  0.3369717E-02 -0.3730244E+02 -0.3724675E+01
  0.6807471E-01 -0.3641675E+00  0.1105789E+01
  0.0000000E+00  0.1000000E+02  0.0000000E+00 -0.5279872E-01 -0.3735274E+02 -0.3598708E+01
  0.1338312E+00 -0.3454582E+00  0.1105789E+01
  0.0000000E+00  0.1000000E+02  0.0000000E+00 -0.7803325E-01 -0.3739754E+02 -0.3504162E+01
  0.1950303E+00 -0.3149847E+00  0.1105789E+01
  0.0000000E+00  0.1000000E+02  0.0000000E+00 -0.2263484E-01 -0.3728060E+02 -0.3059667E+01
  0.2495878E+00 -0.2737847E+00  0.1105789E+01
  0.0000000E+00  0.1000000E+02  0.0000000E+00  0.1223568E-01 -0.3724020E+02 -0.2592263E+01
  0.2956459E+00 -0.2232614E+00  0.1105789E+01
  0.0000000E+00  0.1000000E+02  0.0000000E+00 -0.2596354E-01 -0.3732798E+02 -0.2169088E+01
  0.3316361E+00 -0.1651352E+00  0.1105789E+01
  0.0000000E+00  0.1000000E+02  0.0000000E+00 -0.8795245E-01 -0.3727535E+02 -0.1688259E+01
  0.3563329E+00 -0.1013855E+00  0.1105789E+01
  0.0000000E+00  0.1000000E+02  0.0000000E+00 -0.9450629E-01 -0.3727520E+02 -0.1124870E+01
  0.3688952E+00 -0.3418317E-01  0.1105789E+01
  0.0000000E+00  0.1000000E+02  0.0000000E+00  0.1352082E-01 -0.3720395E+02 -0.2870828E+00
  0.4002321E+00  0.3316418E-01  0.1067860E+01
  0.0000000E+00  0.1000000E+02  0.0000000E+00 -0.1007251E+00 -0.3763889E+02  0.1785233E+00
  0.3893148E+00  0.9858790E-01  0.1067860E+01
  0.0000000E+00  0.1000000E+02  0.0000000E+00  0.1772101E-01 -0.3769859E+02  0.1049252E+01
  0.3677780E+00  0.1613224E+00  0.1067860E+01
  0.0000000E+00  0.1000000E+02  0.0000000E+00  0.4529110E-01 -0.3770180E+02  0.1713357E+01
  0.3362092E+00  0.2196564E+00  0.1067860E+01
  0.0000000E+00  0.1000000E+02  0.0000000E+00  0.4733263E-01 -0.3772836E+02  0.2353302E+01
  0.2954695E+00  0.2719988E+00  0.1067860E+01
  0.0000000E+00  0.1000000E+02  0.0000000E+00  0.3818695E-01 -0.3769907E+02  0.2831709E+01
  0.2466701E+00  0.3169218E+00  0.1067860E+01
  0.0000000E+00  0.1000000E+02  0.0000000E+00  0.4586073E-01 -0.3770952E+02  0.3314429E+01
  0.1911423E+00  0.3532000E+00  0.1067860E+01
  0.0000000E+00  0.1000000E+02  0.0000000E+00  0.7209269E-01 -0.3772575E+02  0.3744932E+01
  0.1304005E+00  0.3798438E+00  0.1067860E+01
  0.0000000E+00  0.1000000E+02  0.0000000E+00  0.2838077E-01 -0.3764367E+02  0.3984734E+01
  0.6610181E-01  0.3961264E+00  0.1067860E+01
  0.0000000E+00  0.1000000E+02  0.0000000E+00  0.1022159E-01 -0.3767704E+02  0.4112820E+01
  0.2459114E-16  0.4016038E+00  0.1067860E+01
  0.0000000E+00  0.1000000E+02  0.0000000E+00  0.2334388E-02 -0.3767881E+02  0.4246063E+01
 -0.6610181E-01  0.3961264E+00  0.1067860E+01
  0.0000000E+00  0.1000000E+02  0.0000000E+00 -0.6929426E-02 -0.3767817E+02  0.4114307E+01
 -0.1304005E+00  0.3798438E+00  0.1067860E+01
  0.0000000E+00  0.1000000E+02  0.0000000E+00 -0.2549568E-01 -0.3764601E+02  0.3987553E+01
 -0.1911423E+00  0.3532000E+00  0.1067860E+01
  0.0000000E+00  0.1000000E+02  0.0000000E+00 -0.6809275E-01 -0.3773007E+02  0.3754646E+01
 -0.2466701E+00  0.3169218E+00  0.1067860E+01
  0.0000000E+00  0.1000000E+02  0.0000000E+00 -0.3826127E-01 -0.3771203E+02  0.3329984E+01
 -0.2954695E+00  0.2719988E+00  0.1067860E+01
  0.0000000E+00  0.1000000E+02  0.0000000E+00 -0.2819108E-01 -0.3769761E+02  0.2849125E+01
 -0.3362092E+00  0.2196564E+00  0.1067860E+01
  0.0000000E+00  0.1000000E+02  0.0000000E+00 -0.3686223E-01 -0.3772833E+02  0.2368570E+01
 -0.3677780E+00  0.1613224E+00  0.1067860E+01
  0.0000000E+00  0.1000000E+02  0.0000000E+00 -0.3816079E-01 -0.3770200E+02  0.1727108E+01
 -0.3893148E+00  0.9858790E-01  0.1067860E+01
  0.0000000E+00  0.1000000E+02  0.0000000E+00 -0.1373679E-01 -0.3769098E+02  0.1053020E+01
 -0.4002321E+00  0.3316418E-01  0.1067860E+01
  0.0000000E+00  0.1000000E+02  0.0000000E+00 -0.1043250E+00 -0.3769712E+02  0.5494919E+00
 -0.4002321E+00 -0.3316418E-01  0.1067860E+01
  0.0000000E+00  0.1000000E+02  0.0000000E+00 -0.8002942E-01 -0.3763837E+02 -0.1964067E+00
 -0.3893148E+00 -0.9858790E-01  0.1067860E+01
  0.0000000E+00  0.1000000E+02  0.0000000E+00  0.3589581E-01 -0.3769787E+02 -0.1067912E+01
 -0.3677780E+00 -0.1613224E+00  0.1067860E+01
  0.0000000E+00  0.1000000E+02  0.0000000E+00  0.6757971E-01 -0.3770082E+02 -0.1729436E+01
 -0.3362092E+00 -0.2196564E+00  0.1067860E+01
  0.0000000E+00  0.1000000E+02  0.0000000E+00  0.6989808E-01 -0.3772372E+02 -0.2373593E+01
 -0.2954695E+00 -0.2719988E+00  0.1067860E+01
  0.0000000E+00  0.1000000E+02  0.0000000E+00  0.5012265E-01 -0.3768029E+02 -0.2844098E+01
 -0.2466701E+00 -0.3169218E+00  0.1067860E+01
  0.0000000E+00  0.1000000E+02  0.0000000E+00  0.5881928E-01 -0.3770342E+02 -0.3337127E+01
 -0.1911423E+00 -0.3532000E+00  0.1067860E+01
  0.0000000E+00  0.1000000E+02  0.0000000E+00  0.8939291E-01 -0.3773517E+02 -0.3769507E+01
 -0.1304005E+00 -0.3798438E+00  0.1067860E+01
  0.0000000E+00  0.1000000E+02  0.0000000E+00  0.3657833E-01 -0.3763278E+02 -0.4000665E+01
 -0.6610181E-01 -0.3961264E+00  0.1067860E+01
  0.0000000E+00  0.1000000E+02  0.0000000E+00  0.1581804E-01 -0.3766419E+02 -0.4127926E+01
 -0.7377341E-16 -0.4016038E+00  0.1067860E+01
  0.0000000E+00  0.1000000E+02  0.0000000E+00  0.4257291E-02 -0.3766342E+02 -0.4259718E+01
  0.6610181E-01 -0.3961264E+00  0.1067860E+01
  0.0000000E+00  0.1000000E+02  0.0000000E+00 -0.9203371E-02 -0.3766501E+02 -0.4128451E+01
  0.1304005E+00 -0.3798438E+00  0.1067860E+01
  0.0000000E+00  0.1000000E+02  0.0000000E+00 -0.3094475E-01 -0.3763257E+02 -0.4001504E+01
  0.1911423E+00 -0.3532000E+00  0.1067860E+01
  0.0000000E+00  0.1000000E+02  0.0000000E+00 -0.8179090E-01 -0.3773415E+02 -0.3772759E+01
  0.2466701E+00 -0.3169218E+00  0.1067860E+01
  0.0000000E+00  0.1000000E+02  0.0000000E+00 -0.4551608E-01 -0.3770149E+02 -0.3345902E+01
  0.2954695E+00 -0.2719988E+00  0.1067860E+01
  0.0000000E+00  0.1000000E+02  0.0000000E+00 -0.3318995E-01 -0.3767510E+02 -0.2856008E+01
  0.3362092E+00 -0.2196564E+00  0.1067860E+01
  0.0000000E+00  0.1000000E+02  0.0000000E+00 -0.6354663E-01 -0.3771602E+02 -0.2377816E+01
  0.3677780E+00 -0.1613224E+00  0.1067860E+01
  0.0000000E+00  0.1000000E+02  0.0000000E+00 -0.6639437E-01 -0.3769715E+02 -0.1734914E+01
  0.3893148E+00 -0.9858790E-01  0.1067860E+01
  0.0000000E+00  0.1000000E+02  0.0000000E+00 -0.3397562E-01 -0.3768662E+02 -0.1068299E+01
  0.4002321E+00 -0.3316418E-01  0.1067860E+01
  0.0000000E+00  0.1000000E+02  0.0000000E+00 -0.1276155E+00 -0.3767493E+02 -0.5796392E+00
  0.4276651E+00  0.3204907E-01  0.1027061E+01
  0.0000000E+00  0.1000000E+02  0.0000000E+00  0.7235056E-01 -0.3821190E+02  0.5237587E+00
  0.4181118E+00  0.9543129E-01  0.1027061E+01
  0.0000000E+00  0.1000000E+02  0.0000000E+00 -0.2035291E-01 -0.3820009E+02  0.1061960E+01
  0.3992185E+00  0.1566817E+00  0.1027061E+01
  0.0000000E+00  0.1000000E+02  0.0000000E+00 -0.1014085E-01 -0.3823540E+02  0.1768425E+01
  0.3714074E+00  0.2144322E+00  0.1027061E+01
  0.0000000E+00  0.1000000E+02  0.0000000E+00 -0.2867879E-02 -0.3825171E+02  0.2451287E+01
  0.3352996E+00  0.2673925E+00  0.1027061E+01
  0.0000000E+00  0.1000000E+02  0.0000000E+00  0.2454243E-01 -0.3822945E+02  0.3082218E+01
  0.2917018E+00  0.3143798E+00  0.1027061E+01
  0.0000000E+00  0.1000000E+02  0.0000000E+00  0.4418573E-01 -0.3818223E+02  0.3647678E+01
  0.2415879E+00  0.3543443E+00  0.1027061E+01
  0.0000000E+00  0.1000000E+02  0.0000000E+00  0.2795471E-01 -0.3822067E+02  0.4100916E+01
  0.1860772E+00  0.3863934E+00  0.1027061E+01
  0.0000000E+00  0.1000000E+02  0.0000000E+00  0.1699510E-01 -0.3814859E+02  0.4439115E+01
  0.1264100E+00  0.4098111E+00  0.1027061E+01
  0.0000000E+00  0.1000000E+02  0.0000000E+00  0.2410433E-02 -0.3811625E+02  0.4695440E+01
  0.6391891E-01  0.4240742E+00  0.1027061E+01
  0.0000000E+00  0.1000000E+02  0.0000000E+00 -0.1275002E-01 -0.3814583E+02  0.4837346E+01
  0.2626036E-16  0.4288643E+00  0.1027061E+01
  0.0000000E+00  0.1000000E+02  0.0000000E+00  0.2542733E-03 -0.3813366E+02  0.5027850E+01
 -0.6391891E-01  0.4240742E+00  0.1027061E+01
  0.0000000E+00  0.1000000E+02  0.0000000E+00  0.1350386E-01 -0.3814803E+02  0.4842697E+01
 -0.1264100E+00  0.4098111E+00  0.1027061E+01
  0.0000000E+00  0.1000000E+02  0.0000000E+00 -0.2105109E-02 -0.3811942E+02  0.4700340E+01
 -0.1860772E+00  0.3863934E+00  0.1027061E+01
  0.0000000E+00  0.1000000E+02  0.0000000E+00 -0.1625078E-01 -0.3815188E+02  0.4444827E+01
 -0.2415879E+00  0.3543443E+00  0.1027061E+01
  0.0000000E+00  0.1000000E+02  0.0000000E+00 -0.2661404E-01 -0.3822463E+02  0.4110657E+01
 -0.2917018E+00  0.3143798E+00  0.1027061E+01
  0.0000000E+00  0.1000000E+02  0.0000000E+00 -0.3658377E-01 -0.3819109E+02  0.3667955E+01
 -0.3352996E+00  0.2673925E+00  0.1027061E+01
  0.0000000E+00  0.1000000E+02  0.0000000E+00 -0.1586151E-01 -0.3822480E+02  0.3085554E+01
 -0.3714074E+00  0.2144322E+00  0.1027061E+01