 TITLE = "A Model for Stokes Flow Analysis" 
 VARIABLES = "X", "Y", "Z", "u", "v", "w", "t_x", "t_y", "t_z" 
 ZONE DATAPACKING=POINT, ZONETYPE=FETRIANGLE,N=          10 ,E=          16
  0.1224647E-15  0.2000000E+01  0.3464102E+01
  0.1000000E+01  0.0000000E+00  0.0000000E+00 -0.4317000E+00 -0.6546278E-02 -0.1555139E-01
 -0.3673940E-15 -0.2000000E+01  0.3464102E+01
  0.1000000E+01  0.0000000E+00  0.0000000E+00 -0.4317000E+00 -0.6546278E-02  0.1555139E-01
  0.3464102E+01  0.2000000E+01  0.2449294E-15
  0.1000000E+01  0.0000000E+00  0.0000000E+00 -0.4046193E+00 -0.3437782E-02  0.1734723E-15
  0.2449294E-15  0.4000000E+01  0.2449294E-15
  0.1000000E+01  0.0000000E+00  0.0000000E+00 -0.4370405E+00  0.3333992E-02  0.1006140E-15
 -0.3464102E+01  0.2000000E+01  0.2449294E-15
  0.1000000E+01  0.0000000E+00  0.0000000E+00 -0.4220891E+00  0.1181333E-01 -0.6938894E-16
 -0.3464102E+01 -0.2000000E+01  0.2449294E-15
  0.1000000E+01  0.0000000E+00  0.0000000E+00 -0.4046193E+00 -0.3437782E-02 -0.8326673E-16
 -0.7347881E-15 -0.4000000E+01  0.2449294E-15
  0.1000000E+01  0.0000000E+00  0.0000000E+00 -0.4370405E+00  0.3333992E-02  0.3469447E-16
  0.3464102E+01 -0.2000000E+01  0.2449294E-15
  0.1000000E+01  0.0000000E+00  0.0000000E+00 -0.4220891E+00  0.1181333E-01  0.8557969E-16
  0.1224647E-15  0.2000000E+01 -0.3464102E+01
  0.1000000E+01  0.0000000E+00  0.0000000E+00 -0.4317000E+00 -0.6546278E-02  0.1555139E-01
 -0.3673940E-15 -0.2000000E+01 -0.3464102E+01
  0.1000000E+01  0.0000000E+00  0.0000000E+00 -0.4317000E+00 -0.6546278E-02 -0.1555139E-01
 
              2              7              6
             10              6              7
              8              7              2
              8             10              7
              4              5              9
              4              3              1
              4              9              3
              4              1              5
              5              1              2
              5              2              6
              5              6             10
              5             10              9
              8              2              1
              8              1              3
              8              9             10
              8              3              9
