 TITLE = "A Model for Stokes Flow Analysis" 
 VARIABLES = "X", "Y", "Z", "u", "v", "w", "t_x", "t_y", "t_z" 
 ZONE DATAPACKING=POINT, ZONETYPE=FETRIANGLE,N=          10 ,E=          16
  0.3061617E-16  0.5000000E+00  0.8660254E+00
  0.1000000E+01  0.0000000E+00  0.0000000E+00 -0.1726800E+01 -0.2618511E-01 -0.6220558E-01
 -0.9184851E-16 -0.5000000E+00  0.8660254E+00
  0.1000000E+01  0.0000000E+00  0.0000000E+00 -0.1726800E+01 -0.2618511E-01  0.6220558E-01
  0.8660254E+00  0.5000000E+00  0.6123234E-16
  0.1000000E+01  0.0000000E+00  0.0000000E+00 -0.1618477E+01 -0.1375113E-01  0.6938894E-15
  0.6123234E-16  0.1000000E+01  0.6123234E-16
  0.1000000E+01  0.0000000E+00  0.0000000E+00 -0.1748162E+01  0.1333597E-01  0.4024558E-15
 -0.8660254E+00  0.5000000E+00  0.6123234E-16
  0.1000000E+01  0.0000000E+00  0.0000000E+00 -0.1688356E+01  0.4725332E-01 -0.2775558E-15
 -0.8660254E+00 -0.5000000E+00  0.6123234E-16
  0.1000000E+01  0.0000000E+00  0.0000000E+00 -0.1618477E+01 -0.1375113E-01 -0.3330669E-15
 -0.1836970E-15 -0.1000000E+01  0.6123234E-16
  0.1000000E+01  0.0000000E+00  0.0000000E+00 -0.1748162E+01  0.1333597E-01  0.1387779E-15
  0.8660254E+00 -0.5000000E+00  0.6123234E-16
  0.1000000E+01  0.0000000E+00  0.0000000E+00 -0.1688356E+01  0.4725332E-01  0.3423188E-15
  0.3061617E-16  0.5000000E+00 -0.8660254E+00
  0.1000000E+01  0.0000000E+00  0.0000000E+00 -0.1726800E+01 -0.2618511E-01  0.6220558E-01
 -0.9184851E-16 -0.5000000E+00 -0.8660254E+00
  0.1000000E+01  0.0000000E+00  0.0000000E+00 -0.1726800E+01 -0.2618511E-01 -0.6220558E-01
 
              2              7              6
             10              6              7
              8              7              2
              8             10              7
              4              5              9
              4              3              1
              4              9              3
              4              1              5
              5              1              2
              5              2              6
              5              6             10
              5             10              9
              8              2              1
              8              1              3
              8              9             10
              8              3              9
