 TITLE = "A Model for Stokes Flow Analysis" 
 VARIABLES = "X", "Y", "Z", "u", "v", "w", "t_x", "t_y", "t_z" 
 ZONE DATAPACKING=POINT, ZONETYPE=FETRIANGLE,N=          10 ,E=          16
  0.6123234E-16  0.1000000E+01  0.1732051E+01
  0.1000000E+01  0.0000000E+00  0.0000000E+00 -0.8634000E+00 -0.1309256E-01 -0.3110279E-01
 -0.1836970E-15 -0.1000000E+01  0.1732051E+01
  0.1000000E+01  0.0000000E+00  0.0000000E+00 -0.8634000E+00 -0.1309256E-01  0.3110279E-01
  0.1732051E+01  0.1000000E+01  0.1224647E-15
  0.1000000E+01  0.0000000E+00  0.0000000E+00 -0.8092387E+00 -0.6875564E-02  0.3469447E-15
  0.1224647E-15  0.2000000E+01  0.1224647E-15
  0.1000000E+01  0.0000000E+00  0.0000000E+00 -0.8740809E+00  0.6667984E-02  0.2012279E-15
 -0.1732051E+01  0.1000000E+01  0.1224647E-15
  0.1000000E+01  0.0000000E+00  0.0000000E+00 -0.8441782E+00  0.2362666E-01 -0.1387779E-15
 -0.1732051E+01 -0.1000000E+01  0.1224647E-15
  0.1000000E+01  0.0000000E+00  0.0000000E+00 -0.8092387E+00 -0.6875564E-02 -0.1665335E-15
 -0.3673940E-15 -0.2000000E+01  0.1224647E-15
  0.1000000E+01  0.0000000E+00  0.0000000E+00 -0.8740809E+00  0.6667984E-02  0.6938894E-16
  0.1732051E+01 -0.1000000E+01  0.1224647E-15
  0.1000000E+01  0.0000000E+00  0.0000000E+00 -0.8441782E+00  0.2362666E-01  0.1711594E-15
  0.6123234E-16  0.1000000E+01 -0.1732051E+01
  0.1000000E+01  0.0000000E+00  0.0000000E+00 -0.8634000E+00 -0.1309256E-01  0.3110279E-01
 -0.1836970E-15 -0.1000000E+01 -0.1732051E+01
  0.1000000E+01  0.0000000E+00  0.0000000E+00 -0.8634000E+00 -0.1309256E-01 -0.3110279E-01
 
              2              7              6
             10              6              7
              8              7              2
              8             10              7
              4              5              9
              4              3              1
              4              9              3
              4              1              5
              5              1              2
              5              2              6
              5              6             10
              5             10              9
              8              2              1
              8              1              3
              8              9             10
              8              3              9
