 TITLE = "A Model for Stokes Flow Analysis" 
 VARIABLES = "X", "Y", "Z", "u", "v", "w", "t_x", "t_y", "t_z" 
 ZONE DATAPACKING=POINT, ZONETYPE=FETRIANGLE,N=          10 ,E=          16
  0.9184851E-16  0.1500000E+01  0.2598076E+01
  0.1000000E+01  0.0000000E+00  0.0000000E+00 -0.5756000E+00 -0.8728371E-02 -0.2073519E-01
 -0.2755455E-15 -0.1500000E+01  0.2598076E+01
  0.1000000E+01  0.0000000E+00  0.0000000E+00 -0.5756000E+00 -0.8728371E-02  0.2073519E-01
  0.2598076E+01  0.1500000E+01  0.1836970E-15
  0.1000000E+01  0.0000000E+00  0.0000000E+00 -0.5394925E+00 -0.4583709E-02 -0.2428613E-16
  0.1836970E-15  0.3000000E+01  0.1836970E-15
  0.1000000E+01  0.0000000E+00  0.0000000E+00 -0.5827206E+00  0.4445322E-02 -0.3486794E-15
 -0.2598076E+01  0.1500000E+01  0.1836970E-15
  0.1000000E+01  0.0000000E+00  0.0000000E+00 -0.5627855E+00  0.1575111E-01  0.2775558E-16
 -0.2598076E+01 -0.1500000E+01  0.1836970E-15
  0.1000000E+01  0.0000000E+00  0.0000000E+00 -0.5394925E+00 -0.4583709E-02 -0.1387779E-16
 -0.5510911E-15 -0.3000000E+01  0.1836970E-15
  0.1000000E+01  0.0000000E+00  0.0000000E+00 -0.5827206E+00  0.4445322E-02 -0.1110223E-15
  0.2598076E+01 -0.1500000E+01  0.1836970E-15
  0.1000000E+01  0.0000000E+00  0.0000000E+00 -0.5627855E+00  0.1575111E-01  0.1017704E-15
  0.9184851E-16  0.1500000E+01 -0.2598076E+01
  0.1000000E+01  0.0000000E+00  0.0000000E+00 -0.5756000E+00 -0.8728371E-02  0.2073519E-01
 -0.2755455E-15 -0.1500000E+01 -0.2598076E+01
  0.1000000E+01  0.0000000E+00  0.0000000E+00 -0.5756000E+00 -0.8728371E-02 -0.2073519E-01
 
              2              7              6
             10              6              7
              8              7              2
              8             10              7
              4              5              9
              4              3              1
              4              9              3
              4              1              5
              5              1              2
              5              2              6
              5              6             10
              5             10              9
              8              2              1
              8              1              3
              8              9             10
              8              3              9
